          ******************************************************
          *         GAMESS VERSION = 12 DEC 2003 (R2)          *
          *             FROM IOWA STATE UNIVERSITY             *
          * M.W.SCHMIDT, K.K.BALDRIDGE, J.A.BOATZ, S.T.ELBERT, *
          *   M.S.GORDON, J.H.JENSEN, S.KOSEKI, N.MATSUNAGA,   *
          *          K.A.NGUYEN, S.J.SU, T.L.WINDUS,           *
          *       TOGETHER WITH M.DUPUIS, J.A.MONTGOMERY       *
          *         J.COMPUT.CHEM.  14, 1347-1363(1993)        *
          **************** SPEC-CPU2006 VERSION ****************

     SINCE 1993, STUDENTS AND POSTDOCS WORKING AT IOWA STATE UNIVERSITY
     AND ALSO IN THEIR VARIOUS JOBS AFTER LEAVING ISU HAVE MADE IMPORTANT
     CONTRIBUTIONS TO THE CODE:
     IVANA ADAMOVIC, CHRISTINE AIKENS, ROB BELL, PRADIPTA BANDYOPADHYAY,
     BRETT BODE, GALINA CHABAN, WEI CHEN, CHEOL HO CHOI, PAUL DAY,
     TIM DUDLEY, DMITRI FEDOROV, GRAHAM FLETCHER, MARK FREITAG,
     KURT GLAESEMANN, GRANT MERRILL, HEATHER NETZLOFF, RYAN OLSON,
     MIKE PAK, JIM SHOEMAKER, TETSUYA TAKETSUGU, SIMON WEBB.

     ADDITIONAL CODE HAS BEEN PROVIDED BY COLLABORATORS IN OTHER GROUPS:
     IOWA STATE UNIVERSITY: JOE IVANIC, KLAUS RUEDENBERG
     UNIVERSITY OF TOKYO: KIMIHIKO HIRAO, HARUYUKI NAKANO, TAKAHITO
          NAKAJIMA, TAKAO TSUNEDA, MUNEAKI KAMIYA, SUSUMU YANAGISAWA
     ODENSE UNIVERSITY: FRANK JENSEN
     UNIVERSITY OF IOWA: VISVALDAS KAIRYS, HUI LI
     NATIONAL INST. OF STANDARDS AND TECHNOLOGY: WALT STEVENS, DAVID GARMER
     UNIVERSITY OF PISA: BENEDETTA MENNUCCI, JACOPO TOMASI
     UNIVERSITY OF MEMPHIS: HENRY KURTZ, PRAKASHAN KORAMBATH
     UNIVERSITY OF ALBERTA: MARIUSZ KLOBUKOWSKI
     UNIVERSITY OF NEW ENGLAND: MARK SPACKMAN
     MIE UNIVERSITY: HIROAKI UMEDA
     MICHIGAN STATE UNIVERSITY: KAROL KOWALSKI, PIOTR PIECUCH
     UNIVERSITY OF SILESIA: MONIKA MUSIAL, STANISLAW KUCHARSKI
     FACULTES UNIVERSITAIRES NOTRE-DAME DE LA PAIX:
          OLIVIER QUINET, BENOIT CHAMPAGNE
     UNIVERSITY OF CALIFORNIA - SANTA BARBARA: BERNARD KIRTMAN

 EXECUTION OF GAMESS BEGUN 

            ECHO OF THE FIRST FEW INPUT CARDS -
 INPUT CARD> $CONTRL                                                                        
 INPUT CARD> SCFTYP=ROHF                                                                    
 INPUT CARD> RUNTYP=ENERGY                                                                  
 INPUT CARD> ICHARG=2                                                                       
 INPUT CARD> MULT=2                                                                         
 INPUT CARD> INTTYP=HONDO                                                                   
 INPUT CARD> ECP=READ                                                                       
 INPUT CARD> $END                                                                           
 INPUT CARD> $GUESS GUESS=MOREAD NORB=159 $END                                              
 INPUT CARD> $SCF DIRSCF=.TRUE. $END                                                        
 INPUT CARD> $DATA                                                                          
 INPUT CARD>h2o cu2+ SBKJC(2f)+aug-cc-pVTZ                                                  
 INPUT CARD>C1                                                                              
 INPUT CARD>0 8 2.010386 0.000139 -0.000026                                                 
 INPUT CARD> S   8                                                                          
 INPUT CARD>  1        15330.00000         0.5080000000E-03                                 
 INPUT CARD>  2        2299.000000         0.3929000000E-02                                 
 INPUT CARD>  3        522.4000000         0.2024300000E-01                                 
 INPUT CARD>  4        147.3000000         0.7918100000E-01                                 
 INPUT CARD>  5        47.55000000         0.2306870000                                     
 INPUT CARD>  6        16.76000000         0.4331180000                                     
 INPUT CARD>  7        6.207000000         0.3502600000                                     
 INPUT CARD>  8       0.6882000000        -0.8154000000E-02                                 
 INPUT CARD> S   8                                                                          
 INPUT CARD>  1        15330.00000        -0.1150000000E-03                                 
 INPUT CARD>  2        2299.000000        -0.8950000000E-03                                 
 INPUT CARD>  3        522.4000000        -0.4636000000E-02                                 
 INPUT CARD>  4        147.3000000        -0.1872400000E-01                                 
 INPUT CARD>  5        47.55000000        -0.5846300000E-01                                 
 INPUT CARD>  6        16.76000000        -0.1364630000                                     
 INPUT CARD>  7        6.207000000        -0.1757400000                                     
 INPUT CARD>  8       0.6882000000         0.6034180000                                     
 INPUT CARD> S   1                                                                          
 INPUT CARD>  1        1.752000000          1.000000000                                     
 INPUT CARD> S   1                                                                          
 INPUT CARD>  1       0.2384000000          1.000000000                                     
 INPUT CARD> P   3                                                                          
 INPUT CARD>  1        34.46000000         0.1592800000E-01                                 
 INPUT CARD>  2        7.749000000         0.9974000000E-01                                 
 INPUT CARD>  3        2.280000000         0.3104920000                                     
 INPUT CARD> P   1                                                                          
 INPUT CARD>  1       0.7156000000          1.000000000                                     
 INPUT CARD> P   1                                                                          
 INPUT CARD>  1       0.2140000000          1.000000000                                     
 INPUT CARD> D   1                                                                          
 INPUT CARD>  1        2.314000000          1.000000000                                     
 INPUT CARD> D   1                                                                          
 INPUT CARD>  1       0.6450000000          1.000000000                                     
 INPUT CARD> F   1                                                                          
 INPUT CARD>  1        1.428000000          1.000000000                                     

 ..... DONE SETTING UP THE RUN .....
LOCMEM is    1   1
   80000000 WORDS OF MEMORY AVAILABLE


     RUN TITLE
     ---------
 h2o cu2+ SBKJC(2f)+aug-cc-pVTZ                                                  

 THE POINT GROUP OF THE MOLECULE IS C1      
 THE ORDER OF THE PRINCIPAL AXIS IS     0
 *** WARNING! ATOM   1 SHELL    1 TYPE S HAS NORMALIZATION   1.02401242
 *** WARNING! ATOM   1 SHELL    2 TYPE S HAS NORMALIZATION   1.71509575
 *** WARNING! ATOM   1 SHELL    5 TYPE P HAS NORMALIZATION   2.58434766
 *** WARNING! ATOM   2 SHELL   15 TYPE S HAS NORMALIZATION   4.20152657
 *** WARNING! ATOM   3 SHELL   24 TYPE S HAS NORMALIZATION   4.20152657

 ATOM      ATOMIC                      COORDINATES (BOHR)
           CHARGE         X                   Y                   Z
 0           8.0     3.7990786696        0.0002626719       -0.0000491329
 1           1.0     4.8901894473       -0.8546229088       -1.2845903730
 2           1.0     4.8900722843        0.8544093697        1.2848246991
 3          29.0    -0.0000037795        0.0000000000       -0.0000566918

          INTERNUCLEAR DISTANCES (ANGS.)
          ------------------------------

                    0              1              2              3         

  1  0               0.0000000      1.0000468 *    0.9999538 *    2.0103880 *  
  2  1               1.0000468 *    0.0000000      1.6329800 *    2.7135184 *  
  3  2               0.9999538 *    1.6329800 *    0.0000000      2.7134865 *  
  4  3               2.0103880 *    2.7135184 *    2.7134865 *    0.0000000    

  * ... LESS THAN  3.000


     ATOMIC BASIS SET
     ----------------
 THE CONTRACTED PRIMITIVE FUNCTIONS HAVE BEEN UNNORMALIZED
 THE CONTRACTED BASIS FUNCTIONS ARE NOW NORMALIZED TO UNITY

 SHELL TYPE PRIMITIVE    EXPONENT          CONTRACTION COEFFICIENTS

 0         

   1   S    1         15330.0000000      0.000520198307
   1   S    2          2299.0000000      0.004023344781
   1   S    3           522.4000000      0.020729083329
   1   S    4           147.3000000      0.081082327080
   1   S    5            47.5500000      0.236226352118
   1   S    6            16.7600000      0.443518209420
   1   S    7             6.2070000      0.358670588689
   1   S    8             0.6882000     -0.008349797237

   2   S    9         15330.0000000     -0.000197236012
   2   S   10          2299.0000000     -0.001535010700
   2   S   11           522.4000000     -0.007951183914
   2   S   12           147.3000000     -0.032113452892
   2   S   13            47.5500000     -0.100269643049
   2   S   14            16.7600000     -0.234047111838
   2   S   15             6.2070000     -0.301410927756
   2   S   16             0.6882000      1.034919649508

   3   S   17             1.7520000      1.000000000000

   4   S   18             0.2384000      1.000000000000

   5   P   19            34.4600000      0.041163489568
   5   P   20             7.7490000      0.257762835858
   5   P   21             2.2800000      0.802419274427

   6   P   22             0.7156000      1.000000000000

   7   P   23             0.2140000      1.000000000000

   8   D   24             2.3140000      1.000000000000

   9   D   25             0.6450000      1.000000000000

  10   F   26             1.4280000      1.000000000000

  11   S   27             0.0737600      1.000000000000

  12   P   28             0.0597400      1.000000000000

  13   D   29             0.2140000      1.000000000000

  14   F   30             0.5000000      1.000000000000

 1         

  15   S   31            33.8700000      0.025494863235
  15   S   32             5.0950000      0.190362765893
  15   S   33             1.1590000      0.852162022245

  16   S   34             0.3258000      1.000000000000

  17   S   35             0.1027000      1.000000000000

  18   P   36             1.4070000      1.000000000000

  19   P   37             0.3880000      1.000000000000

  20   D   38             1.0570000      1.000000000000

  21   S   39             0.0252600      1.000000000000

  22   P   40             0.1020000      1.000000000000

  23   D   41             0.2470000      1.000000000000

 2         

  24   S   42            33.8700000      0.025494863235
  24   S   43             5.0950000      0.190362765893
  24   S   44             1.1590000      0.852162022245

  25   S   45             0.3258000      1.000000000000

  26   S   46             0.1027000      1.000000000000

  27   P   47             1.4070000      1.000000000000

  28   P   48             0.3880000      1.000000000000

  29   D   49             1.0570000      1.000000000000

  30   S   50             0.0252600      1.000000000000

  31   P   51             0.1020000      1.000000000000

  32   D   52             0.2470000      1.000000000000

 3         

  33   L   53            83.4200000     -0.004828997631     -0.008283995376
  33   L   54             7.9700000     -0.644798683722     -0.321894820337
  33   L   55             5.6000000      0.265239869898      0.618132654993
  33   L   56             1.9320000      1.189790416400      0.722183596918

  34   D   57            65.8000000      0.025596998208
  34   D   58            18.8200000      0.148608989597
  34   D   59             6.5380000      0.411785971174
  34   D   60             2.3480000      0.605506957613

  35   D   61             0.7691000      1.000000000000

  36   L   62             2.8660000     -0.074774006131     -0.000541000081
  36   L   63             0.1319000      1.017037083388      1.000058150276

  37   L   64             0.0440000      1.000000000000      1.000000000000

  38   L   65             0.6874000      1.000000000000      1.000000000000

  39   D   66             0.2065000      1.000000000000

  40   F   67             3.1500000      1.000000000000

  41   F   68             0.9000000      1.000000000000

 TOTAL NUMBER OF BASIS SET SHELLS             =   41
 NUMBER OF CARTESIAN GAUSSIAN BASIS FUNCTIONS =  159
 NUMBER OF ELECTRONS                          =   37
 CHARGE OF MOLECULE                           =    2
 SPIN MULTIPLICITY                            =    2
 NUMBER OF OCCUPIED ORBITALS (ALPHA)          =   19
 NUMBER OF OCCUPIED ORBITALS (BETA )          =   18
 TOTAL NUMBER OF ATOMS                        =    4
 THE NUCLEAR REPULSION ENERGY IS       81.1692127556
 NOTE THIS RUN IS USING CORE POTENTIALS, AND THE NUMBER OF ELECTRONS,
 OCCUPIED ORBITALS, AND NUCLEAR REPULSION ENERGY WILL BE ADJUSTED BELOW
 AFTER REMOVAL OF THE CORE CHARGES.

     $CONTRL OPTIONS
     ---------------
 SCFTYP=ROHF         RUNTYP=ENERGY       EXETYP=RUN     
 MPLEVL=       0     CITYP =NONE         CCTYP =NONE    
 MULT  =       2     ICHARG=       2     NZVAR =       0     COORD =UNIQUE  
 ECP   =READ         RELWFN=NONE         LOCAL =NONE         NUMGRD=       F
 ISPHER=      -1     NOSYM =       0     MAXIT =      30     UNITS =ANGS    
 PLTORB=       F     MOLPLT=       F     AIMPAC=       F     FRIEND=        
 NPRINT=       7     IREST =       0     GEOM  =INPUT   
 NORMF =       0     NORMP =       0     ITOL  =      20     ICUT  =       9
 INTTYP=HONDO        QMTTOL= 1.0E-06

     $SYSTEM OPTIONS
     ---------------
  REPLICATED MEMORY=    80000000 WORDS (ON EVERY NODE).
 DISTRIBUTED MEMDDI=           0 MILLION WORDS IN AGGREGATE,
 MEMDDI DISTRIBUTED OVER   1 PROCESSORS IS           0 WORDS/PROCESSOR.
 TOTAL MEMORY REQUESTED ON EACH PROCESSOR=    80000000 WORDS.
 TIMLIM=     36000.0 SECONDS.
 COREFL=F     KDIAG= 0

          --------------
          ECP POTENTIALS
          --------------

 PARAMETERS FOR "ECP-3   " ON ATOM    4 WITH ZCORE  10 AND LMAX  2 ARE
 FOR L= 2      COEFF    N           ZETA
    1       -4.00276    1       23.29060
 FOR L= 0      COEFF    N           ZETA
    1        3.32465    0        2.62059
    2      224.32330    2        7.81082
    3     -180.30470    2        6.63324
 FOR L= 1      COEFF    N           ZETA
    1        3.42130    0       51.15734
    2      105.70126    2       14.73406

 THE ECP RUN REMOVES   10 CORE ELECTRONS, AND THE SAME NUMBER OF PROTONS.
 NUMBER OF ELECTRONS KEPT IN THE CALCULATION IS =   27
 NUMBER OF OCCUPIED ORBITALS (ALPHA) KEPT IS    =   14
 NUMBER OF OCCUPIED ORBITALS (BETA ) KEPT IS    =   13
 THE ADJUSTED NUCLEAR REPULSION ENERGY=       56.2111703440
          ECP ANGULAR INTS.........     0.00 SECONDS

          ----------------
          PROPERTIES INPUT
          ----------------

     MOMENTS            FIELD           POTENTIAL          DENSITY
 IEMOM =       1   IEFLD =       0   IEPOT =       0   IEDEN =       0
 WHERE =COMASS     WHERE =NUCLEI     WHERE =NUCLEI     WHERE =NUCLEI  
 OUTPUT=BOTH       OUTPUT=BOTH       OUTPUT=BOTH       OUTPUT=BOTH    
 IEMINT=       0   IEFINT=       0                     IEDINT=       0
                                                       MORB  =       0
          EXTRAPOLATION IN EFFECT
          SOSCF IN EFFECT

     -------------------------------
     INTEGRAL TRANSFORMATION OPTIONS
     -------------------------------
     NWORD  =       0     CUTOFF = 1.0E-09
     MPTRAN =       0     DIRTRF =       T
     AOINTS =DUP     

          ----------------------
          INTEGRAL INPUT OPTIONS
          ----------------------
 NOPK  =       1 NORDER=       0 SCHWRZ=       T

     ------------------------------------------
     THE POINT GROUP IS C1 , NAXIS= 0, ORDER= 1
     ------------------------------------------

     DIMENSIONS OF THE SYMMETRY SUBSPACES ARE
 A   =  159

 ..... DONE SETTING UP THE RUN .....
 STEP CPU TIME =     0.00 TOTAL CPU TIME =        0.0 (    0.0 MIN)
 TOTAL WALL CLOCK TIME=        0.0 SECONDS, CPU UTILIZATION IS 100.00%

          ********************
          1 ELECTRON INTEGRALS
          ********************
 TIME TO DO ORDINARY INTEGRALS=      0.00
 TIME TO DO      ECP INTEGRALS=      0.00
 ...... END OF ONE-ELECTRON INTEGRALS ......
 STEP CPU TIME =     0.00 TOTAL CPU TIME =        0.0 (    0.0 MIN)
 TOTAL WALL CLOCK TIME=        0.0 SECONDS, CPU UTILIZATION IS 100.00%

          -------------
          GUESS OPTIONS
          -------------
          GUESS =MOREAD            NORB  =     159          NORDER=       0
          MIX   =       F          PRTMO =       F          PUNMO =       F
          TOLZ  = 1.0E-08          TOLE  = 1.0E-05
          SYMDEN=       F          PURIFY=       F

 INITIAL GUESS ORBITALS GENERATED BY MOREAD   ROUTINE.

 SYMMETRIES FOR INITIAL GUESS ORBITALS FOLLOW.  ALPHA SET(S).
    14 ORBITALS ARE OCCUPIED (    5 CORE ORBITALS).
     6=A        7=A        8=A        9=A       10=A       11=A       12=A   
    13=A       14=A       15=A       16=A       17=A       18=A       19=A   
    20=A       21=A       22=A       23=A       24=A   

 SYMMETRIES FOR INITIAL GUESS ORBITALS FOLLOW.   BETA SET(S).
    13 ORBITALS ARE OCCUPIED (    5 CORE ORBITALS).
     6=A        7=A        8=A        9=A       10=A       11=A       12=A   
    13=A       14=A       15=A       16=A       17=A       18=A       19=A   
    20=A       21=A       22=A       23=A   
 ...... END OF INITIAL ORBITAL SELECTION ......
 STEP CPU TIME =     0.00 TOTAL CPU TIME =        0.0 (    0.0 MIN)
 TOTAL WALL CLOCK TIME=        0.0 SECONDS, CPU UTILIZATION IS 100.00%

          --------------------
          2 ELECTRON INTEGRALS
          --------------------

 DIRECT SCF METHOD SKIPS INTEGRAL STORAGE ON DISK.
 DIRECT TRANSFORMATION SKIPS AO INTEGRAL STORAGE ON DISK.
  ...... END OF TWO-ELECTRON INTEGRALS .....

          ---------------------------
                 ROHF SCF CALCULATION
          ---------------------------

     NUCLEAR ENERGY =        56.2111703440
     MAXIT = 30     NPUNCH=  2     MULT=  2
     EXTRAP=T  DAMP=F  SHIFT=F  RSTRCT=F  DIIS=F  SOSCF=T
     DENSITY MATRIX CONV=  2.00E-05
     ROHF CANONICALIZATION PARAMETERS
             C-C     O-O     V-V
     ALPHA -0.5000  0.5000  1.5000
     BETA   1.5000  0.5000 -0.5000
     SOSCF WILL OPTIMIZE    2043 ORBITAL ROTATION ANGLES. SOGTOL= 2.500E-01
     MEMORY REQUIRED FOR UHF/ROHF STEP=    268136 WORDS.

 DIRECT SCF CALCULATION, SCHWRZ=T   FDIFF=T
 SCHWARZ INEQUALITY OVERHEAD:     12720 INTEGRALS, T=        0.00

                                                                           NONZERO     BLOCKS
 ITER EX     TOTAL ENERGY       E CHANGE  DENSITY CHANGE    ORB. GRAD       INTEGRALS    SKIPPED
   1  0     -270.538486479  -270.538486479   1.383235549   0.000000000       68988582       8168
   2  1      -15.013012065   255.525474414   0.043768696   2.891855665       68984618       8191
          ---------------START SECOND ORDER SCF---------------
   3  2      -15.018917711    -0.005905646   0.001150315   0.010679548       66375656      21818
   4  3      -15.018933139    -0.000015428   0.000063247   0.000616111       63675447      34118
   5  4      -15.018933189    -0.000000050   0.000001059   0.000005326       58147723      56100
   6  5      -15.018933189    -0.000000000   0.000000046   0.000000330       33156637     177101

          -----------------
          DENSITY CONVERGED
          -----------------

 FINAL ROHF ENERGY IS      -15.0189331890 AFTER   6 ITERATIONS

          --------------------
          SPIN SZ   =    0.500
          S-SQUARED =   12.750
          --------------------

          ------------
          EIGENVECTORS
          ------------
 ...... END OF ROHF CALCULATION ......
 STEP CPU TIME =     0.00 TOTAL CPU TIME =        0.0 (    0.0 MIN)
 TOTAL WALL CLOCK TIME=        0.0 SECONDS, CPU UTILIZATION IS 100.00%

          -----------------
          ENERGY COMPONENTS
          -----------------

         WAVEFUNCTION NORMALIZATION =       0.0740740741

                ONE ELECTRON ENERGY =     -76.0074434689
                TWO ELECTRON ENERGY =       4.7773399358
           NUCLEAR REPULSION ENERGY =      56.2111703440
                                      ------------------
                       TOTAL ENERGY =     -15.0189331890

 ELECTRON-ELECTRON POTENTIAL ENERGY =       4.7773399358
  NUCLEUS-ELECTRON POTENTIAL ENERGY =    -135.1240003432
   NUCLEUS-NUCLEUS POTENTIAL ENERGY =      56.2111703440
                                      ------------------
             TOTAL POTENTIAL ENERGY =     -74.1354900634
               TOTAL KINETIC ENERGY =      59.1165568744
                 VIRIAL RATIO (V/T) =       1.2540562912

          ---------------------------------------
          MULLIKEN AND LOWDIN POPULATION ANALYSES
          ---------------------------------------

     MULLIKEN ATOMIC POPULATION IN EACH MOLECULAR ORBITAL

                      1          2          3          4          5

                  2.000000   2.000000   2.000000   2.000000   2.000000

    1             2.001812   0.167727  -0.001920   0.000263  -0.000092
    2            -0.001075  -0.007320   0.000294   0.000005   0.000013
    3            -0.001075  -0.007322   0.000294   0.000005   0.000013
    4             0.000339   1.846914   2.001331   1.999728   2.000065

                      6          7          8          9         10

                  2.000000   2.000000   2.000000   2.000000   2.000000

    1             0.002516  -0.000345  -0.000628  -0.000130  -0.000050
    2             0.000040  -0.000052   0.000052  -0.000043  -0.000005
    3             0.000040  -0.000052   0.000052  -0.000043  -0.000005
    4             1.997403   2.000449   2.000524   2.000217   2.000061

                     11         12         13         14

                  2.000000   2.000000   2.000000   1.000000

    1            -0.532935  -0.007281   0.002347  -0.353789
    2             0.020922  -0.000444  -0.000487   0.019055
    3             0.020929  -0.000445  -0.000487   0.019060
    4             2.491085   2.008170   1.998627   1.315674

     ATOMIC SPIN POPULATION (ALPHA MINUS BETA)
       ATOM         MULL.POP.                    LOW.POP.
    1 0             0.000000                     0.000000
    2 1             0.000000                     0.000000
    3 2             0.000000                     0.000000
    4 3             0.000000                     0.000000

               ----- POPULATIONS IN EACH AO -----
                             MULLIKEN      LOWDIN
              1  O   1  S     1.95580     1.53484
              2  O   1  S     0.00631     0.18848
              3  O   1  S     0.03879     0.20458
              4  O   1  S    -0.00574     0.00829
              5  O   1  X     0.00009     0.00012
              6  O   1  Y     0.00000     0.00000
              7  O   1  Z     0.00000     0.00000
              8  O   1  X    -0.00007     0.00012
              9  O   1  Y    -0.00000     0.00000
             10  O   1  Z    -0.00000     0.00000
             11  O   1  X    -0.00002     0.00002
             12  O   1  Y     0.00000     0.00000
             13  O   1  Z     0.00000     0.00000
             14  O   1 XX     0.00157     0.00435
             15  O   1 YY     0.00137     0.00452
             16  O   1 ZZ     0.00140     0.00407
             17  O   1 XY    -0.00000     0.00000
             18  O   1 XZ     0.00000     0.00000
             19  O   1 YZ     0.00000     0.00003
             20  O   1 XX     0.00051     0.00000
             21  O   1 YY     0.00053     0.00000
             22  O   1 ZZ     0.00054     0.00001
             23  O   1 XY    -0.00000     0.00000
             24  O   1 XZ    -0.00000     0.00000
             25  O   1 YZ     0.00000     0.00001
             26  O    XXX     0.00002     0.00009
             27  O    YYY     0.00000     0.00000
             28  O    ZZZ     0.00000     0.00000
             29  O    XXY     0.00000     0.00000
             30  O    XXZ     0.00000     0.00000
             31  O    YYX     0.00001     0.00005
             32  O    YYZ     0.00000     0.00000
             33  O    ZZX     0.00001     0.00011
             34  O    ZZY     0.00000     0.00000
             35  O    XYZ     0.00000     0.00002
             36  O   1  S     0.00053     0.00074
             37  O   1  X    -0.00000     0.00000
             38  O   1  Y     0.00000     0.00000
             39  O   1  Z     0.00000     0.00000
             40  O   1 XX     0.00003     0.00039
             41  O   1 YY     0.00006     0.00061
             42  O   1 ZZ     0.00007     0.00037
             43  O   1 XY    -0.00000     0.00000
             44  O   1 XZ     0.00000     0.00000
             45  O   1 YZ     0.00000     0.00008
             46  O    XXX     0.00001     0.00001
             47  O    YYY     0.00000     0.00000
             48  O    ZZZ     0.00000     0.00000
             49  O    XXY     0.00000     0.00000
             50  O    XXZ    -0.00000     0.00000
             51  O    YYX     0.00000     0.00000
             52  O    YYZ    -0.00000     0.00000
             53  O    ZZX     0.00000     0.00002
             54  O    ZZY     0.00000     0.00000
             55  O    XYZ     0.00000     0.00003
             56  H   2  S    -0.00002     0.00000
             57  H   2  S    -0.00009     0.00099
             58  H   2  S    -0.00062     0.00062
             59  H   2  X    -0.00001     0.00007
             60  H   2  Y    -0.00001     0.00004
             61  H   2  Z    -0.00001     0.00009
             62  H   2  X    -0.00010     0.00296
             63  H   2  Y     0.00009     0.00176
             64  H   2  Z     0.00021     0.00382
             65  H   2 XX    -0.00001     0.00027
             66  H   2 YY    -0.00001     0.00005
             67  H   2 ZZ    -0.00002     0.00057
             68  H   2 XY    -0.00000     0.00073
             69  H   2 XZ    -0.00000     0.00164
             70  H   2 YZ     0.00000     0.00096
             71  H   2  S    -0.00001     0.00004
             72  H   2  X    -0.00011     0.00046
             73  H   2  Y    -0.00005     0.00037
             74  H   2  Z    -0.00012     0.00078
             75  H   2 XX    -0.00014     0.00043
             76  H   2 YY    -0.00005     0.00007
             77  H   2 ZZ    -0.00006     0.00097
             78  H   2 XY    -0.00000     0.00124
             79  H   2 XZ    -0.00000     0.00280
             80  H   2 YZ     0.00008     0.00188
             81  H   3  S    -0.00002     0.00000
             82  H   3  S    -0.00009     0.00099
             83  H   3  S    -0.00062     0.00062
             84  H   3  X    -0.00001     0.00007
             85  H   3  Y    -0.00001     0.00004
             86  H   3  Z    -0.00001     0.00009
             87  H   3  X    -0.00010     0.00296
             88  H   3  Y     0.00009     0.00176
             89  H   3  Z     0.00021     0.00382
             90  H   3 XX    -0.00001     0.00027
             91  H   3 YY    -0.00001     0.00005
             92  H   3 ZZ    -0.00002     0.00057
             93  H   3 XY    -0.00000     0.00073
             94  H   3 XZ    -0.00000     0.00164
             95  H   3 YZ     0.00000     0.00096
             96  H   3  S    -0.00001     0.00004
             97  H   3  X    -0.00011     0.00046
             98  H   3  Y    -0.00005     0.00037
             99  H   3  Z    -0.00012     0.00078
            100  H   3 XX    -0.00014     0.00043
            101  H   3 YY    -0.00005     0.00007
            102  H   3 ZZ    -0.00006     0.00097
            103  H   3 XY    -0.00000     0.00124
            104  H   3 XZ    -0.00000     0.00280
            105  H   3 YZ     0.00008     0.00188
            106  CU  4  S    -0.00000     0.00000
            107  CU  4  X    -0.00000     0.00000
            108  CU  4  Y    -0.00000     0.00000
            109  CU  4  Z     0.00000     0.00000
            110  CU  4 XX     0.00000     0.00000
            111  CU  4 YY     0.00000     0.00000
            112  CU  4 ZZ     0.00000     0.00000
            113  CU  4 XY     0.00000     0.00000
            114  CU  4 XZ     0.00000     0.00000
            115  CU  4 YZ     0.00000     0.00000
            116  CU  4 XX    -0.00000     0.00003
            117  CU  4 YY     0.00000     0.00000
            118  CU  4 ZZ     0.00000     0.00000
            119  CU  4 XY    -0.00000     0.00000
            120  CU  4 XZ     0.00000     0.00000
            121  CU  4 YZ     0.00000     0.00000
            122  CU  4  S     0.00003     0.00000
            123  CU  4  X     0.00018     0.00019
            124  CU  4  Y     0.00000     0.00000
            125  CU  4  Z     0.00000     0.00000
            126  CU  4  S     0.00002     0.00003
            127  CU  4  X    -0.00001     0.00013
            128  CU  4  Y     0.00000     0.00000
            129  CU  4  Z    -0.00000     0.00000
            130  CU  4  S     0.00000     0.00000
            131  CU  4  X     0.00000     0.00000
            132  CU  4  Y     0.00000     0.00000
            133  CU  4  Z    -0.00000     0.00000
            134  CU  4 XX     0.00013     0.00036
            135  CU  4 YY     0.00000     0.00002
            136  CU  4 ZZ     0.00000     0.00001
            137  CU  4 XY     0.00000     0.00000
            138  CU  4 XZ     0.00000     0.00000
            139  CU  4 YZ    -0.00000     0.00000
            140  CU   XXX     0.00000     0.00000
            141  CU   YYY    -0.00000     0.00000
            142  CU   ZZZ    -0.00000     0.00000
            143  CU   XXY    -0.00000     0.00000
            144  CU   XXZ    -0.00000     0.00000
            145  CU   YYX    -0.00000     0.00000
            146  CU   YYZ    -0.00000     0.00000
            147  CU   ZZX    -0.00000     0.00000
            148  CU   ZZY    -0.00000     0.00000
            149  CU   XYZ    -0.00000     0.00000
            150  CU   XXX    -0.00000     0.00002
            151  CU   YYY     0.00000     0.00000
            152  CU   ZZZ    -0.00000     0.00000
            153  CU   XXY    -0.00000     0.00000
            154  CU   XXZ     0.00000     0.00000
            155  CU   YYX    -0.00000     0.00000
            156  CU   YYZ    -0.00000     0.00000
            157  CU   ZZX    -0.00000     0.00000
            158  CU   ZZY     0.00000     0.00000
            159  CU   XYZ     0.00000     0.00000

          ----- MULLIKEN ATOMIC OVERLAP POPULATIONS -----
          (OFF-DIAGONAL ELEMENTS NEED TO BE MULTIPLIED BY 2)

             1           2           3           4

    1    2.0040388
    2   -0.0013023   0.0001569
    3   -0.0013015   0.0000991   0.0001569
    4    0.0003768  -0.0000293  -0.0000293   0.0000206

          TOTAL MULLIKEN AND LOWDIN ATOMIC POPULATIONS
       ATOM         MULL.POP.    CHARGE          LOW.POP.     CHARGE
    1 0             2.001812    5.998188         1.951954    6.048046

          -------------------------------
          BOND ORDER AND VALENCE ANALYSIS     BOND ORDER THRESHOLD=0.050
          -------------------------------

                   BOND                       BOND                       BOND
  ATOM PAIR DIST  ORDER      ATOM PAIR DIST  ORDER      ATOM PAIR DIST  ORDER

                       TOTAL       BONDED        FREE
      ATOM            VALENCE     VALENCE     VALENCE
    1 0                -0.004      -0.004      -0.000
    2 1                -0.002      -0.002       0.000
    3 2                -0.002      -0.002       0.000
    4 3                 0.001       0.001      -0.000

          -----------------------------------------
          ATOMIC SPIN DENSITY AT THE NUCLEUS (A.U.)
          -----------------------------------------
                            SPIN DENS    ALPHA DENS     BETA DENS
    1  0            8.0     0.0000000     144.41784     144.41784
    2  1            1.0     0.0000000      -0.00002      -0.00002
    3  2            1.0     0.0000000       0.00001       0.00001
    4  3           19.0     0.0000000       0.00000       0.00000

          ---------------------
          ELECTROSTATIC MOMENTS
          ---------------------

 POINT   1           X           Y           Z (BOHR)    CHARGE
                 0.872525    0.000049   -0.000051       27.00 (A.U.)
         DX          DY          DZ         /D/  (DEBYE)
    22.923833    0.000084    0.000599   22.923833
 ...... END OF PROPERTY EVALUATION ......
 STEP CPU TIME =     0.00 TOTAL CPU TIME =        0.0 (    0.0 MIN)
 TOTAL WALL CLOCK TIME=        0.0 SECONDS, CPU UTILIZATION IS 100.00%
 EXECUTION OF GAMESS TERMINATED NORMALLY 
