          ******************************************************
          *         GAMESS VERSION = 12 DEC 2003 (R2)          *
          *             FROM IOWA STATE UNIVERSITY             *
          * M.W.SCHMIDT, K.K.BALDRIDGE, J.A.BOATZ, S.T.ELBERT, *
          *   M.S.GORDON, J.H.JENSEN, S.KOSEKI, N.MATSUNAGA,   *
          *          K.A.NGUYEN, S.J.SU, T.L.WINDUS,           *
          *       TOGETHER WITH M.DUPUIS, J.A.MONTGOMERY       *
          *         J.COMPUT.CHEM.  14, 1347-1363(1993)        *
          **************** SPEC-CPU2006 VERSION ****************

     SINCE 1993, STUDENTS AND POSTDOCS WORKING AT IOWA STATE UNIVERSITY
     AND ALSO IN THEIR VARIOUS JOBS AFTER LEAVING ISU HAVE MADE IMPORTANT
     CONTRIBUTIONS TO THE CODE:
     IVANA ADAMOVIC, CHRISTINE AIKENS, ROB BELL, PRADIPTA BANDYOPADHYAY,
     BRETT BODE, GALINA CHABAN, WEI CHEN, CHEOL HO CHOI, PAUL DAY,
     TIM DUDLEY, DMITRI FEDOROV, GRAHAM FLETCHER, MARK FREITAG,
     KURT GLAESEMANN, GRANT MERRILL, HEATHER NETZLOFF, RYAN OLSON,
     MIKE PAK, JIM SHOEMAKER, TETSUYA TAKETSUGU, SIMON WEBB.

     ADDITIONAL CODE HAS BEEN PROVIDED BY COLLABORATORS IN OTHER GROUPS:
     IOWA STATE UNIVERSITY: JOE IVANIC, KLAUS RUEDENBERG
     UNIVERSITY OF TOKYO: KIMIHIKO HIRAO, HARUYUKI NAKANO, TAKAHITO
          NAKAJIMA, TAKAO TSUNEDA, MUNEAKI KAMIYA, SUSUMU YANAGISAWA
     ODENSE UNIVERSITY: FRANK JENSEN
     UNIVERSITY OF IOWA: VISVALDAS KAIRYS, HUI LI
     NATIONAL INST. OF STANDARDS AND TECHNOLOGY: WALT STEVENS, DAVID GARMER
     UNIVERSITY OF PISA: BENEDETTA MENNUCCI, JACOPO TOMASI
     UNIVERSITY OF MEMPHIS: HENRY KURTZ, PRAKASHAN KORAMBATH
     UNIVERSITY OF ALBERTA: MARIUSZ KLOBUKOWSKI
     UNIVERSITY OF NEW ENGLAND: MARK SPACKMAN
     MIE UNIVERSITY: HIROAKI UMEDA
     MICHIGAN STATE UNIVERSITY: KAROL KOWALSKI, PIOTR PIECUCH
     UNIVERSITY OF SILESIA: MONIKA MUSIAL, STANISLAW KUCHARSKI
     FACULTES UNIVERSITAIRES NOTRE-DAME DE LA PAIX:
          OLIVIER QUINET, BENOIT CHAMPAGNE
     UNIVERSITY OF CALIFORNIA - SANTA BARBARA: BERNARD KIRTMAN

 EXECUTION OF GAMESS BEGUN 

            ECHO OF THE FIRST FEW INPUT CARDS -
 INPUT CARD>!    doubly substituted triazolium cation, from unpublished                     
 INPUT CARD>!    research by M. W. Schmidt (2005).                                          
 INPUT CARD>!    the MCSCF gradient with the 6-31++G(d,p) basis has 202 AOs.                
 INPUT CARD>!                                                                               
 INPUT CARD>!    MCSCF has the FINAL E= -585.4208823991, 23 iters, RMS grad= 0.035184652    
 INPUT CARD>!                                                                               
 INPUT CARD>!    This computation took 2058 seconds on a machine installed at ISU.          
 INPUT CARD>!    disk requirement is about 12 MBytes.                                       
 INPUT CARD>!                                                                               
 INPUT CARD> $contrl scftyp=mcscf runtyp=gradient nzvar=30 icharg=+1 $end                   
 INPUT CARD> $system mwords=5 memddi=0 $end                                                 
 INPUT CARD> $basis  gbasis=n31 ngauss=6 ndfunc=1 npfunc=1 diffsp=.t. diffs=.t. $end        
 INPUT CARD> $guess  guess=moread norb=202 norder=1                                         
 INPUT CARD>         iorder(25)=26,27,28,29,30,31,32,33,34,  25,35,36,37,39,  38 $end       
 INPUT CARD> $trans  dirtrf=.true. $end                                                     
 INPUT CARD> $mcscf  acurcy=1d-6 $end                                                       
 INPUT CARD> $det ncore = 33 nact=5 nels=6 $end                                             
 INPUT CARD> $zmat   izmat(1)=1,1,2,  1,2,3,  1,3,4,  1,4,5,  1,5,1,                        
 INPUT CARD>                  2,2,3,4,  2,4,5,1,  3,1,2,3,4,   3,4,5,1,2                    
 INPUT CARD>            1,3,6,  2,6,3,2,  3,6,3,2,1,                                        
 INPUT CARD>            1,5,7,  2,7,5,1,  3,7,5,1,2,                                        
 INPUT CARD>            1,8,1,  2,8,1,2,  3,8,1,2,3,                                        
 INPUT CARD>            1,9,8, 2,9,8,1, 3,9,8,1,2,  1,10,8,  2,10,8,1,  3,10,8,1,2,         
 INPUT CARD>            1,11,4,  2,11,4,3,  3,11,4,3,2                                      
 INPUT CARD>            1,11,12,  2,12,11,4,  4,12,11,3,5  $end                             
 INPUT CARD> $data                                                                          
 INPUT CARD>1-NF2,4-cyano-1,2,4-triazolium ion...MP2/6-31++G(d,p) geometry                  
 INPUT CARD>Cs                                                                              
 INPUT CARD>                                                                                
 INPUT CARD>N           7.0    .6276827108    .1135173087    .0000000000                    
 INPUT CARD>N           7.0   -.7197954777    .0135796606    .0000000000                    
 INPUT CARD>C           6.0  -1.1137985684   1.2721378108    .0000000000                    
 INPUT CARD>N           7.0   -.0174462602   2.1275879754    .0000000000                    
 INPUT CARD>C           6.0   1.0958991612   1.3611552266    .0000000000                    
 INPUT CARD>H           1.0  -2.1380803969   1.6121505226    .0000000000                    
 INPUT CARD>H           1.0   2.1280654965   1.6804345388    .0000000000                    
 INPUT CARD>N           7.0   1.5141451241  -1.0150413991    .0000000000                    
 INPUT CARD>F           9.0   1.0699884795  -1.7522991794   1.0855943184                    
 INPUT CARD>C           6.0   -.0523280592   3.4995367309    .0000000000                    
 INPUT CARD>N           7.0   -.1017707368   4.6818127169    .0000000000                    
 INPUT CARD> $end                                                                           
 INPUT CARD>                                                                                
 INPUT CARD>     the starting orbitals have MVOQ=4 virtuals...                              
 INPUT CARD>                                                                                
 INPUT CARD>--- CLOSED SHELL ORBITALS --- GENERATED AT Thu Mar  3 09:36:54 2005             
 INPUT CARD>1-NF2,4-cyano-1,2,4-triazolium ion...E(RHF)= -585.3647805573                    
 INPUT CARD> $VEC                                                                           
 INPUT CARD> 1  1-0.00000000E+00-0.00000000E+00-0.00000000E+00-0.00000000E+00 4.08254416E-05
 INPUT CARD> 1  2-0.00000000E+00-0.00000000E+00-0.00000000E+00 5.15086947E-05-0.00000000E+00
 INPUT CARD> 1  3-0.00000000E+00-0.00000000E+00-7.14911865E-05-0.00000000E+00-0.00000000E+00

 ..... DONE SETTING UP THE RUN .....
LOCMEM is    1   1
    5000000 WORDS OF MEMORY AVAILABLE

     BASIS OPTIONS
     -------------
     GBASIS=N31          IGAUSS=       6      POLAR=POPLE   
     NDFUNC=       1     NFFUNC=       0     DIFFSP=       T
     NPFUNC=       1      DIFFS=       T


     RUN TITLE
     ---------
 1-NF2,4-cyano-1,2,4-triazolium ion...MP2/6-31++G(d,p) geometry                  

 THE POINT GROUP OF THE MOLECULE IS CS      
 THE ORDER OF THE PRINCIPAL AXIS IS     0

 ATOM      ATOMIC                      COORDINATES (BOHR)
           CHARGE         X                   Y                   Z
 N           7.0     1.1861483306        0.2145166083        0.0000000000
 N           7.0    -1.3602162201        0.0256618375        0.0000000000
 C           6.0    -2.1047740998        2.4039918810        0.0000000000
 N           7.0    -0.0329686513        4.0205582883        0.0000000000
 C           6.0     2.0709491248        2.5722104050        0.0000000000
 H           1.0    -4.0403860899        3.0465227387        0.0000000000
 H           1.0     4.0214606723        3.1755608186        0.0000000000
 N           7.0     2.8613193902       -1.9181501105        0.0000000000
 F           9.0     2.0219850363       -3.3113652976       -2.0514757956
 F           9.0     2.0219850363       -3.3113652976        2.0514757956
 C           6.0    -0.0988856934        6.6131655054        0.0000000000
 N           7.0    -0.1923188061        8.8473431608        0.0000000000

          INTERNUCLEAR DISTANCES (ANGS.)
          ------------------------------

                    N              N              C              N         

  1  N               0.0000000      1.3511791 *    2.0916880 *    2.1148693 *  
  2  N               1.3511791 *    0.0000000      1.3187900 *    2.2276278 *  
  3  C               2.0916880 *    1.3187900 *    0.0000000      1.3906054 *  
  4  N               2.1148693 *    2.2276278 *    1.3906054 *    0.0000000    
  5  C               1.3326016 *    2.2611296 *    2.2114900 *    1.3516498 *  
  6  H               3.1456871      2.1370449 *    1.0792414 *    2.1823760 *  
  7  H               2.1694188 *    3.2998056      3.2674744      2.1916129 *  
  8  N               1.4350820 *    2.4593804 *    3.4838595      3.4959822    
  9  F               2.2035019 *    2.7386438 *    3.8851847      4.1730748    
 10  F               2.2035019 *    2.7386438 *    3.8851847      4.1730748    
 11  C               3.4536274      3.5492829      2.4673925 *    1.3723921 *  
 12  N               4.6261674      4.7089653      3.5566956      2.5556163 *  

                    C              H              H              N         

  1  N               1.3326016 *    3.1456871      2.1694188 *    1.4350820 *  
  2  N               2.2611296 *    2.1370449 *    3.2998056      2.4593804 *  
  3  C               2.2114900 *    1.0792414 *    3.2674744      3.4838595    
  4  N               1.3516498 *    2.1823760 *    2.1916129 *    3.4959822    
  5  C               0.0000000      3.2437050      1.0804197 *    2.4127246 *  
  6  H               3.2437050      0.0000000      4.2666923      4.4989875    
  7  H               1.0804197 *    4.2666923      0.0000000      2.7645052 *  
  8  N               2.4127246 *    4.4989875      2.7645052 *    0.0000000    
  9  F               3.2973906      4.7738604      3.7525595      1.3854022 *  
 10  F               3.2973906      4.7738604      3.7525595      1.3854022 *  
 11  C               2.4271591 *    2.8129325 *    2.8395860 *    4.7786247    
 12  N               3.5300396      3.6836643      3.7390427      5.9215987    

                    F              F              C              N         

  1  N               2.2035019 *    2.2035019 *    3.4536274      4.6261674    
  2  N               2.7386438 *    2.7386438 *    3.5492829      4.7089653    
  3  C               3.8851847      3.8851847      2.4673925 *    3.5566956    
  4  N               4.1730748      4.1730748      1.3723921 *    2.5556163 *  
  5  C               3.2973906      3.2973906      2.4271591 *    3.5300396    
  6  H               4.7738604      4.7738604      2.8129325 *    3.6836643    
  7  H               3.7525595      3.7525595      2.8395860 *    3.7390427    
  8  N               1.3854022 *    1.3854022 *    4.7786247      5.9215987    
  9  F               0.0000000      2.1711886 *    5.4790410      6.6294291    
 10  F               2.1711886 *    0.0000000      5.4790410      6.6294291    
 11  C               5.4790410      5.4790410      0.0000000      1.1833094 *  
 12  N               6.6294291      6.6294291      1.1833094 *    0.0000000    

  * ... LESS THAN  3.000


     ATOMIC BASIS SET
     ----------------
 THE CONTRACTED PRIMITIVE FUNCTIONS HAVE BEEN UNNORMALIZED
 THE CONTRACTED BASIS FUNCTIONS ARE NOW NORMALIZED TO UNITY

 SHELL TYPE PRIMITIVE    EXPONENT          CONTRACTION COEFFICIENTS

 N         

   1   S    1          4173.5114600      0.001834772160
   1   S    2           627.4579110      0.013994627002
   1   S    3           142.9020930      0.068586551812
   1   S    4            40.2343293      0.232240873040
   1   S    5            12.8202129      0.469069948082
   1   S    6             4.3904370      0.360455199063

   2   L    7            11.6263619     -0.114961181702      0.067579743878
   2   L    8             2.7162798     -0.169117478561      0.323907295893
   2   L    9             0.7722184      1.145851947027      0.740895139755

   3   L   10             0.2120315      1.000000000000      1.000000000000

   4   L   11             0.0639000      1.000000000000      1.000000000000

   5   D   12             0.8000000      1.000000000000

 N         

   6   S   13          4173.5114600      0.001834772160
   6   S   14           627.4579110      0.013994627002
   6   S   15           142.9020930      0.068586551812
   6   S   16            40.2343293      0.232240873040
   6   S   17            12.8202129      0.469069948082
   6   S   18             4.3904370      0.360455199063

   7   L   19            11.6263619     -0.114961181702      0.067579743878
   7   L   20             2.7162798     -0.169117478561      0.323907295893
   7   L   21             0.7722184      1.145851947027      0.740895139755

   8   L   22             0.2120315      1.000000000000      1.000000000000

   9   L   23             0.0639000      1.000000000000      1.000000000000

  10   D   24             0.8000000      1.000000000000

 C         

  11   S   25          3047.5248800      0.001834737132
  11   S   26           457.3695180      0.014037322813
  11   S   27           103.9486850      0.068842622264
  11   S   28            29.2101553      0.232184443216
  11   S   29             9.2866630      0.467941348435
  11   S   30             3.1639270      0.362311985337

  12   L   31             7.8682723     -0.119332419775      0.068999066591
  12   L   32             1.8812885     -0.160854151696      0.316423960957
  12   L   33             0.5442493      1.143456437840      0.744308290898

  13   L   34             0.1687145      1.000000000000      1.000000000000

  14   L   35             0.0438000      1.000000000000      1.000000000000

  15   D   36             0.8000000      1.000000000000

 N         

  16   S   37          4173.5114600      0.001834772160
  16   S   38           627.4579110      0.013994627002
  16   S   39           142.9020930      0.068586551812
  16   S   40            40.2343293      0.232240873040
  16   S   41            12.8202129      0.469069948082
  16   S   42             4.3904370      0.360455199063

  17   L   43            11.6263619     -0.114961181702      0.067579743878
  17   L   44             2.7162798     -0.169117478561      0.323907295893
  17   L   45             0.7722184      1.145851947027      0.740895139755

  18   L   46             0.2120315      1.000000000000      1.000000000000

  19   L   47             0.0639000      1.000000000000      1.000000000000

  20   D   48             0.8000000      1.000000000000

 C         

  21   S   49          3047.5248800      0.001834737132
  21   S   50           457.3695180      0.014037322813
  21   S   51           103.9486850      0.068842622264
  21   S   52            29.2101553      0.232184443216
  21   S   53             9.2866630      0.467941348435
  21   S   54             3.1639270      0.362311985337

  22   L   55             7.8682723     -0.119332419775      0.068999066591
  22   L   56             1.8812885     -0.160854151696      0.316423960957
  22   L   57             0.5442493      1.143456437840      0.744308290898

  23   L   58             0.1687145      1.000000000000      1.000000000000

  24   L   59             0.0438000      1.000000000000      1.000000000000

  25   D   60             0.8000000      1.000000000000

 H         

  26   S   61            18.7311370      0.033494604338
  26   S   62             2.8253944      0.234726953484
  26   S   63             0.6401217      0.813757326146

  27   S   64             0.1612778      1.000000000000

  28   S   65             0.0360000      1.000000000000

  29   P   66             1.1000000      1.000000000000

 H         

  30   S   67            18.7311370      0.033494604338
  30   S   68             2.8253944      0.234726953484
  30   S   69             0.6401217      0.813757326146

  31   S   70             0.1612778      1.000000000000

  32   S   71             0.0360000      1.000000000000

  33   P   72             1.1000000      1.000000000000

 N         

  34   S   73          4173.5114600      0.001834772160
  34   S   74           627.4579110      0.013994627002
  34   S   75           142.9020930      0.068586551812
  34   S   76            40.2343293      0.232240873040
  34   S   77            12.8202129      0.469069948082
  34   S   78             4.3904370      0.360455199063

  35   L   79            11.6263619     -0.114961181702      0.067579743878
  35   L   80             2.7162798     -0.169117478561      0.323907295893
  35   L   81             0.7722184      1.145851947027      0.740895139755

  36   L   82             0.2120315      1.000000000000      1.000000000000

  37   L   83             0.0639000      1.000000000000      1.000000000000

  38   D   84             0.8000000      1.000000000000

 F         

  44   S   85          7001.7130900      0.001819616901
  44   S   86          1051.3660900      0.013916079607
  44   S   87           239.2856900      0.068405324535
  44   S   88            67.3974453      0.233185760119
  44   S   89            21.5199573      0.471267439240
  44   S   90             7.4031013      0.356618546182

  45   L   91            20.8479528     -0.108506975109      0.071628724237
  45   L   92             4.8083083     -0.146451658147      0.345912102697
  45   L   93             1.3440699      1.128688581135      0.722469956367

  46   L   94             0.3581514      1.000000000000      1.000000000000

  47   L   95             0.1076000      1.000000000000      1.000000000000

  48   D   96             0.8000000      1.000000000000

 C         

  49   S   97          3047.5248800      0.001834737132
  49   S   98           457.3695180      0.014037322813
  49   S   99           103.9486850      0.068842622264
  49   S  100            29.2101553      0.232184443216
  49   S  101             9.2866630      0.467941348435
  49   S  102             3.1639270      0.362311985337

  50   L  103             7.8682723     -0.119332419775      0.068999066591
  50   L  104             1.8812885     -0.160854151696      0.316423960957
  50   L  105             0.5442493      1.143456437840      0.744308290898

  51   L  106             0.1687145      1.000000000000      1.000000000000

  52   L  107             0.0438000      1.000000000000      1.000000000000

  53   D  108             0.8000000      1.000000000000

 N         

  54   S  109          4173.5114600      0.001834772160
  54   S  110           627.4579110      0.013994627002
  54   S  111           142.9020930      0.068586551812
  54   S  112            40.2343293      0.232240873040
  54   S  113            12.8202129      0.469069948082
  54   S  114             4.3904370      0.360455199063

  55   L  115            11.6263619     -0.114961181702      0.067579743878
  55   L  116             2.7162798     -0.169117478561      0.323907295893
  55   L  117             0.7722184      1.145851947027      0.740895139755

  56   L  118             0.2120315      1.000000000000      1.000000000000

  57   L  119             0.0639000      1.000000000000      1.000000000000

  58   D  120             0.8000000      1.000000000000

 TOTAL NUMBER OF BASIS SET SHELLS             =   58
 NUMBER OF CARTESIAN GAUSSIAN BASIS FUNCTIONS =  202
 NUMBER OF ELECTRONS                          =   72
 CHARGE OF MOLECULE                           =    1
 SPIN MULTIPLICITY                            =    1
 NUMBER OF OCCUPIED ORBITALS (ALPHA)          =   36
 NUMBER OF OCCUPIED ORBITALS (BETA )          =   36
 TOTAL NUMBER OF ATOMS                        =   12
 THE NUCLEAR REPULSION ENERGY IS      514.8214520464

     $CONTRL OPTIONS
     ---------------
 SCFTYP=MCSCF        RUNTYP=GRADIENT     EXETYP=RUN     
 MPLEVL=       0     CITYP =NONE         CCTYP =NONE    
 MULT  =       1     ICHARG=       1     NZVAR =      30     COORD =UNIQUE  
 ECP   =NONE         RELWFN=NONE         LOCAL =NONE         NUMGRD=       F
 ISPHER=      -1     NOSYM =       0     MAXIT =      30     UNITS =ANGS    
 PLTORB=       F     MOLPLT=       F     AIMPAC=       F     FRIEND=        
 NPRINT=       7     IREST =       0     GEOM  =INPUT   
 NORMF =       0     NORMP =       0     ITOL  =      20     ICUT  =       9
 INTTYP=POPLE        QMTTOL= 1.0E-06

     $SYSTEM OPTIONS
     ---------------
  REPLICATED MEMORY=     5000000 WORDS (ON EVERY NODE).
 DISTRIBUTED MEMDDI=           0 MILLION WORDS IN AGGREGATE,
 MEMDDI DISTRIBUTED OVER   1 PROCESSORS IS           0 WORDS/PROCESSOR.
 TOTAL MEMORY REQUESTED ON EACH PROCESSOR=     5000000 WORDS.
 TIMLIM=     36000.0 SECONDS.
 COREFL=F     KDIAG= 0

          ----------------
          PROPERTIES INPUT
          ----------------

     MOMENTS            FIELD           POTENTIAL          DENSITY
 IEMOM =       1   IEFLD =       0   IEPOT =       0   IEDEN =       0
 WHERE =COMASS     WHERE =NUCLEI     WHERE =NUCLEI     WHERE =NUCLEI  
 OUTPUT=BOTH       OUTPUT=BOTH       OUTPUT=BOTH       OUTPUT=BOTH    
 IEMINT=       0   IEFINT=       0                     IEDINT=       0
                                                       MORB  =       0

     -------------------------------
     INTEGRAL TRANSFORMATION OPTIONS
     -------------------------------
     NWORD  =       0     CUTOFF = 1.0E-09
     MPTRAN =       0     DIRTRF =       T
     AOINTS =DUP     

          ----------------------
          MCSCF INPUT PARAMETERS
          ----------------------
 CONVERGER SELECTION: FOCAS = F  SOSCF = T  FULLNR = F  QUD = F  JACOBI = F
 SECULAR EQUATION METHOD CISTEP = ALDET   
 --- GENERAL INPUT OPTIONS:
 MAXIT =      60  MICIT =       5  ACURCY= 1.000E-06
 DAMP  =   0.000  CANONC=       T  ENGTOL= 1.000E-10
 EKT   =       F  NPUNCH=       2  NWORD =         0
 --- INPUT FOR SOSCF CONVERGER:
 FORS  =       T  NOFO  =       0

          ----------------------
          INTEGRAL INPUT OPTIONS
          ----------------------
 NOPK  =       1 NORDER=       0 SCHWRZ=       T

   --- ENCODED Z MATRIX ---
 COORD  TYPE   I   J   K   L   M   N
    1      1    1   2
    2      1    2   3
    3      1    3   4
    4      1    4   5
    5      1    5   1
    6      2    2   3   4
    7      2    4   5   1
    8      3    1   2   3   4
    9      3    4   5   1   2
   10      1    3   6
   11      2    6   3   2
   12      3    6   3   2   1
   13      1    5   7
   14      2    7   5   1
   15      3    7   5   1   2
   16      1    8   1
   17      2    8   1   2
   18      3    8   1   2   3
   19      1    9   8
   20      2    9   8   1
   21      3    9   8   1   2
   22      1   10   8
   23      2   10   8   1
   24      3   10   8   1   2
   25      1   11   4
   26      2   11   4   3
   27      3   11   4   3   2
   28      1   11  12
   29      2   12  11   4
   30      4   12  11   3   5

 THE DETERMINANT OF THE G MATRIX IS 10**(   -34)

 THE DETERMINANT OF THE G MATRIX IS 10**(   -34)
 * * * WARNING * * *
 YOUR B MATRIX HAS A SMALL DETERMINANT.
 THIS SUGGESTS YOU MAY HAVE BADLY CHOSEN COORDINATES.


                     --------------------
                     INTERNAL COORDINATES
                     --------------------

                 - - ATOMS - -         COORDINATE      COORDINATE
 NO.   TYPE    I  J  K  L  M  N        (BOHR,RAD)       (ANG,DEG)
 ----------------------------------------------------------------
   1 STRETCH   1  2                     2.5533583       1.3511791
   2 STRETCH   2  3                     2.4921517       1.3187900
   3 STRETCH   3  4                     2.6278632       1.3906054
   4 STRETCH   4  5                     2.5542478       1.3516498
   5 STRETCH   5  1                     2.5182519       1.3326016
   6 BEND      2  3  4                  1.9299959     110.5806222
   7 BEND      4  5  1                  1.8146799     103.9734999
   8 TORSION   1  2  3  4               0.0000000       0.0000000
   9 TORSION   4  5  1  2               0.0000000       0.0000000
  10 STRETCH   3  6                     2.0394704       1.0792414
  11 BEND      6  3  2                  2.1946976     125.7469093
  12 TORSION   6  3  2  1               3.1415927     180.0000000
  13 STRETCH   5  7                     2.0416971       1.0804197
  14 BEND      7  5  1                  2.2298082     127.7585969
  15 TORSION   7  5  1  2               3.1415927     180.0000000
  16 STRETCH   8  1                     2.7119118       1.4350820
  17 BEND      8  1  2                  2.1625910     123.9073349
  18 TORSION   8  1  2  3               3.1415927     180.0000000
  19 STRETCH   9  8                     2.6180305       1.3854022
  20 BEND      9  8  1                  1.7930821     102.7360376
  21 TORSION   9  8  1  2               0.9329178      53.4522545
  22 STRETCH  10  8                     2.6180305       1.3854022
  23 BEND     10  8  1                  1.7930821     102.7360376
  24 TORSION  10  8  1  2              -0.9329178     -53.4522545
  25 STRETCH  11  4                     2.5934451       1.3723921
  26 BEND     11  4  3                  2.2079706     126.5073951
  27 TORSION  11  4  3  2               3.1415927     180.0000000
  28 STRETCH  11 12                     2.2361305       1.1833094
  29 BEND     12 11  4                  3.1252166     179.0617224
  30 PLA.BEND 12 11  3  5               0.0000000       0.0000000

     ------------------------------------------
     THE POINT GROUP IS CS , NAXIS= 0, ORDER= 2
     ------------------------------------------

     DIMENSIONS OF THE SYMMETRY SUBSPACES ARE
 A'  =  141     A'' =   61

 ..... DONE SETTING UP THE RUN .....
 STEP CPU TIME =     0.00 TOTAL CPU TIME =        0.0 (    0.0 MIN)
 TOTAL WALL CLOCK TIME=        0.0 SECONDS, CPU UTILIZATION IS 100.00%

                    --------------------------------
                    SINGLE POINT ENERGY AND GRADIENT
                    --------------------------------

          ********************
          1 ELECTRON INTEGRALS
          ********************
 TIME TO DO   DIPOLE INTEGRALS=      0.00
 ...... END OF ONE-ELECTRON INTEGRALS ......
 STEP CPU TIME =     0.00 TOTAL CPU TIME =        0.0 (    0.0 MIN)
 TOTAL WALL CLOCK TIME=        0.0 SECONDS, CPU UTILIZATION IS 100.00%

          -------------
          GUESS OPTIONS
          -------------
          GUESS =MOREAD            NORB  =     202          NORDER=       1
          MIX   =       F          PRTMO =       F          PUNMO =       F
          TOLZ  = 1.0E-08          TOLE  = 1.0E-05
          SYMDEN=       F          PURIFY=       F

 INITIAL GUESS ORBITALS GENERATED BY MOREAD   ROUTINE.

 SYMMETRIES FOR INITIAL GUESS ORBITALS FOLLOW.   BOTH SET(S).
    36 ORBITALS ARE OCCUPIED (   10 CORE ORBITALS).
     1=A''      2=A'       3=A'       4=A'       5=A'       6=A'       7=A'  
     8=A'       9=A'      10=A'      11=A'      12=A''     13=A'      14=A'  
    15=A'      16=A'      17=A'      18=A'      19=A'      20=A'      21=A'  
    22=A''     23=A'      24=A'      25=A'      26=A''     27=A'      28=A'' 
    29=A''     30=A'      31=A'      32=A'      33=A'      34=A''     35=A'' 
    36=A''     37=A''     38=A''     39=A'      40=A'      41=A''     42=A'  
    43=A'      44=A'      45=A'      46=A'      47=A'      48=A''     49=A'  
    50=A'      51=A'      52=A'      53=A''     54=A''     55=A'      56=A'  
    57=A'      58=A''     59=A'      60=A'      61=A''     62=A'      63=A'' 
    64=A'      65=A'      66=A''     67=A'      68=A'      69=A'      70=A'  
    71=A'      72=A''     73=A'      74=A'      75=A'      76=A''     77=A'  
    78=A'      79=A'      80=A'      81=A'      82=A''     83=A'      84=A'  
    85=A'      86=A'      87=A''     88=A'      89=A''     90=A'      91=A'' 
    92=A'      93=A''     94=A'      95=A'      96=A''     97=A'      98=A'  
    99=A''    100=A''    101=A'     102=A'     103=A'     104=A'     105=A'' 
   106=A'     107=A''    108=A'     109=A'     110=A''    111=A'     112=A'' 
   113=A'     114=A''    115=A'     116=A'     117=A''    118=A'     119=A'  
   120=A''    121=A'     122=A'     123=A''    124=A'     125=A'     126=A'' 
   127=A''    128=A'     129=A'     130=A'     131=A'     132=A'     133=A'  
   134=A'     135=A'     136=A''    137=A'     138=A'     139=A''    140=A'  
   141=A'     142=A'     143=A''    144=A'     145=A'     146=A''    147=A'  
   148=A''    149=A''    150=A'     151=A'     152=A''    153=A''    154=A'' 
   155=A'     156=A'     157=A''    158=A'     159=A'     160=A''    161=A'' 
   162=A'     163=A'     164=A'     165=A''    166=A'     167=A''    168=A'  
   169=A''    170=A'     171=A''    172=A''    173=A'     174=A''    175=A'  
   176=A'     177=A'     178=A''    179=A'     180=A'     181=A'     182=A'' 
   183=A'     184=A'     185=A'     186=A'     187=A'     188=A'     189=A'  
   190=A''    191=A'     192=A'     193=A'     194=A'     195=A'     196=A'  
   197=A'     198=A'     199=A'     200=A'     201=A''    202=A'  
 ...... END OF INITIAL ORBITAL SELECTION ......
 STEP CPU TIME =     0.00 TOTAL CPU TIME =        0.0 (    0.0 MIN)
 TOTAL WALL CLOCK TIME=        0.0 SECONDS, CPU UTILIZATION IS 100.00%

          --------------------
          2 ELECTRON INTEGRALS
          --------------------

 DIRECT SCF METHOD SKIPS INTEGRAL STORAGE ON DISK.
 DIRECT TRANSFORMATION SKIPS AO INTEGRAL STORAGE ON DISK.
  ...... END OF TWO-ELECTRON INTEGRALS .....

          -----------------
          MCSCF CALCULATION
          -----------------

 ----- NUCLEAR ENERGY ----- =       514.8214520464

     --------------------------------------------------
          AMES LABORATORY DETERMINANTAL FULL CI
     PROGRAM WRITTEN BY JOE IVANIC AND KLAUS RUEDENBERG
     --------------------------------------------------

 THE POINT GROUP                  =   CS      
 THE STATE SYMMETRY               =   A'      
 NUMBER OF CORE ORBITALS          =   33
 NUMBER OF ACTIVE ORBITALS        =    5
 NUMBER OF ALPHA ELECTRONS        =   36 (   3 ACTIVE)
 NUMBER OF BETA ELECTRONS         =   36 (   3 ACTIVE)
 NUMBER OF OCCUPIED ORBITALS      =   38
 NUMBER OF CI STATES REQUESTED    =    1
 NUMBER OF CI STARTING VECTORS    =    1
 MAX. NO. OF CI EXPANSION VECTORS =   10
 SIZE OF INITIAL CI GUESS MATRIX  =  300
 MAX. NO. OF CI ITERS/STATE       =  100
 CI DIAGONALIZATION CRITERION     = 1.00E-05
 PURE SPIN STATE AVERAGED 1E- AND 2E- DENSITY MATRIX OPTION=.T.
 STATE=   1 DM2 WEIGHT=   1.00000

 CORRELATION ENERGY ANALYSIS      =    F

 SYMMETRIES FOR THE  33 CORE,   5 ACTIVE ARE

     CORE= A''   A'    A'    A'    A'    A'    A'    A'    A'    A'  
           A'    A''   A'    A'    A'    A'    A'    A'    A'    A'  
           A'    A''   A'    A'    A'    A''   A'    A''   A''   A'  
           A'    A'    A'  

   ACTIVE= A''   A''   A''   A''   A'' 
 OPENING FILE DAFL30 WITH      81 LOGICAL RECORDS OF   40804 WORDS
 WITH A MAXIMUM OF        1620 PHYSICAL RECORDS OF    2048 WORDS

 EVALUATING EXCHANGE INTEGRALS FOR DIRECT INTEGRAL TRANSFORMATION
 SCHWARZ INEQUALITY OVERHEAD:     19354 INTEGRALS, T=        0.00

          ------------------------------
          CASSCF INTEGRAL TRANSFORMATION
          ------------------------------
 AO INTEGRALS WILL BE CALCULATED IN DIRECT MODE...
 MEMORY WHICH WOULD BE NEEDED FOR SINGLE PASS TRANSFORMATION =   21206504

 ----- CHOOSING TWO STEPS TRANSFORMATION -----
 NUMBER OF WORDS USED      =     498474
 NUMBER OF WORDS AVAILABLE =    5000000
 DIRECT TRANSFORMATION SKIPS AO INTEGRAL STORAGE ON DISK.

 ----- NUCLEAR REPULSION ENERGY =    514.82145205
 ----- FROZEN CORE ENERGY       =  -1092.06138801

 ... SYMMETRY ...           CPU =    0.00
 ... (PQ|RS) -> (PQ|KL) ... CPU =    0.00
 ... (PQ|KL) -> (IJ|KL) ... CPU =    0.00

 NUMBER OF (PQ|KL) INTEGRALS WRITTEN     257886
 NUMBER OF (IJ|KL) INTEGRALS WRITTEN        120
 ..... END OF CAS INTEGRAL TRANSFORMATION .....
 STEP CPU TIME =     0.00 TOTAL CPU TIME =        0.0 (    0.0 MIN)
 TOTAL WALL CLOCK TIME=        0.0 SECONDS, CPU UTILIZATION IS 100.00%

     --------------------------------------------------
          AMES LABORATORY DETERMINANTAL FULL CI
     PROGRAM WRITTEN BY JOE IVANIC AND KLAUS RUEDENBERG
     --------------------------------------------------

 THE NUMBER OF DETERMINANTS HAVING SPACE SYMMETRY A' 
 IN POINT GROUP CS   WITH SZ=  0.0 IS            100
 THE DETERMINANT FULL CI REQUIRES      171214 WORDS
 SMALL CI MATRIX, JUST USING INCORE DIAGONALIZATION...

 CI EIGENVECTORS WILL BE LABELED IN GROUP=CS      
 PRINTING CI COEFFICIENTS LARGER THAN  0.050000

 STATE   1  ENERGY=      -719.5719687561  S=  0.00  SZ=  0.00  SPACE SYM=A'  

Only the coefficients are validated.
The full determinant is printed in *.eigenv.txt.
COEFFICIENT
------------
 0.9790922
-0.1154894
-0.1154894
 0.0807622
 0.0807622
 ..... DONE WITH DETERMINANT CI COMPUTATION .....
 STEP CPU TIME =     0.00 TOTAL CPU TIME =        0.0 (    0.0 MIN)
 TOTAL WALL CLOCK TIME=        0.0 SECONDS, CPU UTILIZATION IS 100.00%

     --------------------------------------------------
      ONE AND TWO PARTICLE DENSITY MATRIX COMPUTATION
     PROGRAM WRITTEN BY JOE IVANIC AND KLAUS RUEDENBERG
     --------------------------------------------------

      31266 WORDS WILL BE USED TO FORM THE DENSITIES
 THE DENSITIES ARE STATE AVERAGED OVER   1 ROOT(S)
 STATE=   1   ENERGY=     -719.5719687561   WEIGHT= 1.00000   S=  0.00
 SIEVING THE A'   SYMMETRY NONZERO DENSITY ELEMENTS IN GROUP CS      
        120 NONZERO DM2 ELEMENTS WRITTEN IN       1 RECORDS TO FILE 15
 ..... DONE WITH 1 AND 2 PARTICLE DENSITY MATRIX .....
 STEP CPU TIME =     0.00 TOTAL CPU TIME =        0.0 (    0.0 MIN)
 TOTAL WALL CLOCK TIME=        0.0 SECONDS, CPU UTILIZATION IS 100.00%

          --------------------------------------
          APPROXIMATE SECOND-ORDER MCSCF PROGRAM
          --------------------------------------
          PROGRAM WRITTEN BY G.CHABAN, A.MARQUEZ, AND M.DUPUIS

  NUMBER OF WORDS NEEDED     =     587826
  NUMBER AVAILABLE           =    5000000

 ----- GAMMA(IJKL)*(PQ|KL) PRODUCTS ----- CPU TIME =      0.000
 ----- ORBITAL SYMMETRY             ----- CPU TIME =      0.000
 ----- FOCK OPERATORS CONSTRUCTION  ----- CPU TIME =      0.000
 ----- WARNING : CORE-ACTIVE GAP    =    0.20989
     MICIT =   1 ASYMM =    0.226064 ROTMAX =    0.096972
 ----- EFFECTIVE FOCK + ROTATE ORBS ----- CPU TIME =      0.000
     MICIT =   2 ASYMM =    0.212869 ROTMAX =    0.110578
     MICIT =   3 ASYMM =    0.242062 ROTMAX =    0.043226
     MICIT =   4 ASYMM =    0.243967 ROTMAX =    0.038985
     MICIT =   5 ASYMM =    0.247778 ROTMAX =    0.048409
 ..... DONE WITH CASSCF ORBITAL UPDATE .....
 STEP CPU TIME =     0.00 TOTAL CPU TIME =        0.0 (    0.0 MIN)
 TOTAL WALL CLOCK TIME=        0.0 SECONDS, CPU UTILIZATION IS 100.00%

 ITER     TOTAL ENERGY      DEL(E)  LAGRANGIAN ASYMMETRY   SQCDF  MICIT   DAMP
   1     -719.571968756 -0.571968756  0.226064   36   29 9.697E-02  5   0.0000
       ----------START APPROXIMATE SECOND ORDER MCSCF----------
   2     -719.969236685 -0.397267929  0.211214  110   35 3.351E-01  1   0.0000
 SOSCF IS SCALING ROTATION ANGLE MATRIX, SQCDF=    0.171903
   3     -719.995559467 -0.026322782  0.261914   36   29 2.905E+00  1   0.0000
 SOSCF IS SCALING ROTATION ANGLE MATRIX, SQCDF=    0.205758
   4     -719.136658827  0.858900640  0.699595  171   38 2.220E+00  1   0.0000
 SOSCF IS SCALING ROTATION ANGLE MATRIX, SQCDF=    1.674716
   5     -717.843176690  0.293482137  1.225586  152   38 5.074E+00  1   0.0000
 SOSCF IS SCALING ROTATION ANGLE MATRIX, SQCDF=    0.182323
   6     -719.862166687 -0.018989998  0.572484   41   26 3.045E+00  1   0.0000
 SOSCF ENCOUNTERS A SERIOUS PROBLEM IN -SONEWT-
 THE ROTATION ANGLE VECTOR HAS A HUGE NORM, SQCDF=   1.648E+02
 REEXAMINE STARTING VECTORS, APPROPRIATENESS OF YOUR SCFTYP, ETC...
 EXECUTION OF GAMESS TERMINATED -ABNORMALLY- AT @}LH    ö6°     đ|LH    
